V -t * -v 1.0a5 -a 0
A -t * -n 1 -p 0 -o 0x7fffffff -c 30 -a 1
A -t * -h 1 -m 1073741823 -s 0
c -t * -i 1 -n Blue
n -t * -a 4 -s 4 -S UP -v circle -c black -i black
n -t * -a 0 -s 0 -S UP -v circle -c black -i black
n -t * -a 1 -s 1 -S UP -v circle -c black -i black
n -t * -a 2 -s 2 -S UP -v circle -c black -i black
n -t * -a 3 -s 3 -S UP -v circle -c black -i black
l -t * -s 0 -d 1 -S UP -r 100000 -D 0.01 -c black
l -t * -s 1 -d 4 -S UP -r 100000 -D 0.01 -c black
l -t * -s 3 -d 4 -S UP -r 100000 -D 0.01 -c black
l -t * -s 0 -d 2 -S UP -r 100000 -D 0.01 -c black
l -t * -s 1 -d 3 -S UP -r 100000 -D 0.01 -c black
l -t * -s 2 -d 3 -S UP -r 100000 -D 0.01 -c black
+ -t 0.000169788487334637 -s 0 -d 1 -p rtProtoDV -e 5 -c 0 -i 0 -a 0 -x {0.2 1.1 -1 ------- null}
- -t 0.000169788487334637 -s 0 -d 1 -p rtProtoDV -e 5 -c 0 -i 0 -a 0 -x {0.2 1.1 -1 ------- null}
h -t 0.000169788487334637 -s 0 -d 1 -p rtProtoDV -e 5 -c 0 -i 0 -a 0 -x {0.2 1.1 -1 ------- null}
+ -t 0.000169788487334637 -s 0 -d 2 -p rtProtoDV -e 5 -c 0 -i 1 -a 0 -x {0.2 2.2 -1 ------- null}
- -t 0.000169788487334637 -s 0 -d 2 -p rtProtoDV -e 5 -c 0 -i 1 -a 0 -x {0.2 2.2 -1 ------- null}
h -t 0.000169788487334637 -s 0 -d 2 -p rtProtoDV -e 5 -c 0 -i 1 -a 0 -x {0.2 2.2 -1 ------- null}
+ -t 0.00710233021858257 -s 2 -d 0 -p rtProtoDV -e 5 -c 0 -i 2 -a 0 -x {2.2 0.2 -1 ------- null}
- -t 0.00710233021858257 -s 2 -d 0 -p rtProtoDV -e 5 -c 0 -i 2 -a 0 -x {2.2 0.2 -1 ------- null}
h -t 0.00710233021858257 -s 2 -d 0 -p rtProtoDV -e 5 -c 0 -i 2 -a 0 -x {2.2 0.2 -1 ------- null}
+ -t 0.00710233021858257 -s 2 -d 3 -p rtProtoDV -e 5 -c 0 -i 3 -a 0 -x {2.2 3.1 -1 ------- null}
- -t 0.00710233021858257 -s 2 -d 3 -p rtProtoDV -e 5 -c 0 -i 3 -a 0 -x {2.2 3.1 -1 ------- null}
h -t 0.00710233021858257 -s 2 -d 3 -p rtProtoDV -e 5 -c 0 -i 3 -a 0 -x {2.2 3.1 -1 ------- null}
r -t 0.0105697884873346 -s 0 -d 1 -p rtProtoDV -e 5 -c 0 -i 0 -a 0 -x {0.2 1.1 -1 ------- null}
+ -t 0.0105697884873346 -s 1 -d 0 -p rtProtoDV -e 5 -c 0 -i 4 -a 0 -x {1.1 0.2 -1 ------- null}
- -t 0.0105697884873346 -s 1 -d 0 -p rtProtoDV -e 5 -c 0 -i 4 -a 0 -x {1.1 0.2 -1 ------- null}
h -t 0.0105697884873346 -s 1 -d 0 -p rtProtoDV -e 5 -c 0 -i 4 -a 0 -x {1.1 0.2 -1 ------- null}
+ -t 0.0105697884873346 -s 1 -d 3 -p rtProtoDV -e 5 -c 0 -i 5 -a 0 -x {1.1 3.1 -1 ------- null}
- -t 0.0105697884873346 -s 1 -d 3 -p rtProtoDV -e 5 -c 0 -i 5 -a 0 -x {1.1 3.1 -1 ------- null}
h -t 0.0105697884873346 -s 1 -d 3 -p rtProtoDV -e 5 -c 0 -i 5 -a 0 -x {1.1 3.1 -1 ------- null}
+ -t 0.0105697884873346 -s 1 -d 4 -p rtProtoDV -e 5 -c 0 -i 6 -a 0 -x {1.1 4.1 -1 ------- null}
- -t 0.0105697884873346 -s 1 -d 4 -p rtProtoDV -e 5 -c 0 -i 6 -a 0 -x {1.1 4.1 -1 ------- null}
h -t 0.0105697884873346 -s 1 -d 4 -p rtProtoDV -e 5 -c 0 -i 6 -a 0 -x {1.1 4.1 -1 ------- null}
r -t 0.0105697884873346 -s 0 -d 2 -p rtProtoDV -e 5 -c 0 -i 1 -a 0 -x {0.2 2.2 -1 ------- null}
+ -t 0.0105697884873346 -s 2 -d 0 -p rtProtoDV -e 5 -c 0 -i 7 -a 0 -x {2.2 0.2 -1 ------- null}
- -t 0.0105697884873346 -s 2 -d 0 -p rtProtoDV -e 5 -c 0 -i 7 -a 0 -x {2.2 0.2 -1 ------- null}
h -t 0.0105697884873346 -s 2 -d 0 -p rtProtoDV -e 5 -c 0 -i 7 -a 0 -x {2.2 0.2 -1 ------- null}
+ -t 0.0105697884873346 -s 2 -d 3 -p rtProtoDV -e 5 -c 0 -i 8 -a 0 -x {2.2 3.1 -1 ------- null}
- -t 0.0105697884873346 -s 2 -d 3 -p rtProtoDV -e 5 -c 0 -i 8 -a 0 -x {2.2 3.1 -1 ------- null}
h -t 0.0105697884873346 -s 2 -d 3 -p rtProtoDV -e 5 -c 0 -i 8 -a 0 -x {2.2 3.1 -1 ------- null}
r -t 0.0175023302185826 -s 2 -d 0 -p rtProtoDV -e 5 -c 0 -i 2 -a 0 -x {2.2 0.2 -1 ------- null}
+ -t 0.0175023302185826 -s 0 -d 1 -p rtProtoDV -e 5 -c 0 -i 9 -a 0 -x {0.2 1.1 -1 ------- null}
- -t 0.0175023302185826 -s 0 -d 1 -p rtProtoDV -e 5 -c 0 -i 9 -a 0 -x {0.2 1.1 -1 ------- null}
h -t 0.0175023302185826 -s 0 -d 1 -p rtProtoDV -e 5 -c 0 -i 9 -a 0 -x {0.2 1.1 -1 ------- null}
+ -t 0.0175023302185826 -s 0 -d 2 -p rtProtoDV -e 5 -c 0 -i 10 -a 0 -x {0.2 2.2 -1 ------- null}
- -t 0.0175023302185826 -s 0 -d 2 -p rtProtoDV -e 5 -c 0 -i 10 -a 0 -x {0.2 2.2 -1 ------- null}
h -t 0.0175023302185826 -s 0 -d 2 -p rtProtoDV -e 5 -c 0 -i 10 -a 0 -x {0.2 2.2 -1 ------- null}
r -t 0.0175023302185826 -s 2 -d 3 -p rtProtoDV -e 5 -c 0 -i 3 -a 0 -x {2.2 3.1 -1 ------- null}
+ -t 0.0175023302185826 -s 3 -d 1 -p rtProtoDV -e 5 -c 0 -i 11 -a 0 -x {3.1 1.1 -1 ------- null}
- -t 0.0175023302185826 -s 3 -d 1 -p rtProtoDV -e 5 -c 0 -i 11 -a 0 -x {3.1 1.1 -1 ------- null}
h -t 0.0175023302185826 -s 3 -d 1 -p rtProtoDV -e 5 -c 0 -i 11 -a 0 -x {3.1 1.1 -1 ------- null}
+ -t 0.0175023302185826 -s 3 -d 2 -p rtProtoDV -e 5 -c 0 -i 12 -a 0 -x {3.1 2.2 -1 ------- null}
- -t 0.0175023302185826 -s 3 -d 2 -p rtProtoDV -e 5 -c 0 -i 12 -a 0 -x {3.1 2.2 -1 ------- null}
h -t 0.0175023302185826 -s 3 -d 2 -p rtProtoDV -e 5 -c 0 -i 12 -a 0 -x {3.1 2.2 -1 ------- null}
+ -t 0.0175023302185826 -s 3 -d 4 -p rtProtoDV -e 5 -c 0 -i 13 -a 0 -x {3.1 4.1 -1 ------- null}
- -t 0.0175023302185826 -s 3 -d 4 -p rtProtoDV -e 5 -c 0 -i 13 -a 0 -x {3.1 4.1 -1 ------- null}
h -t 0.0175023302185826 -s 3 -d 4 -p rtProtoDV -e 5 -c 0 -i 13 -a 0 -x {3.1 4.1 -1 ------- null}
r -t 0.0209697884873346 -s 1 -d 0 -p rtProtoDV -e 5 -c 0 -i 4 -a 0 -x {1.1 0.2 -1 ------- null}
+ -t 0.0209697884873346 -s 0 -d 1 -p rtProtoDV -e 5 -c 0 -i 14 -a 0 -x {0.2 1.1 -1 ------- null}
- -t 0.0209697884873346 -s 0 -d 1 -p rtProtoDV -e 5 -c 0 -i 14 -a 0 -x {0.2 1.1 -1 ------- null}
h -t 0.0209697884873346 -s 0 -d 1 -p rtProtoDV -e 5 -c 0 -i 14 -a 0 -x {0.2 1.1 -1 ------- null}
+ -t 0.0209697884873346 -s 0 -d 2 -p rtProtoDV -e 5 -c 0 -i 15 -a 0 -x {0.2 2.2 -1 ------- null}
- -t 0.0209697884873346 -s 0 -d 2 -p rtProtoDV -e 5 -c 0 -i 15 -a 0 -x {0.2 2.2 -1 ------- null}
h -t 0.0209697884873346 -s 0 -d 2 -p rtProtoDV -e 5 -c 0 -i 15 -a 0 -x {0.2 2.2 -1 ------- null}
r -t 0.0209697884873346 -s 1 -d 3 -p rtProtoDV -e 5 -c 0 -i 5 -a 0 -x {1.1 3.1 -1 ------- null}
r -t 0.0209697884873346 -s 1 -d 4 -p rtProtoDV -e 5 -c 0 -i 6 -a 0 -x {1.1 4.1 -1 ------- null}
+ -t 0.0209697884873346 -s 4 -d 1 -p rtProtoDV -e 5 -c 0 -i 16 -a 0 -x {4.1 1.1 -1 ------- null}
- -t 0.0209697884873346 -s 4 -d 1 -p rtProtoDV -e 5 -c 0 -i 16 -a 0 -x {4.1 1.1 -1 ------- null}
h -t 0.0209697884873346 -s 4 -d 1 -p rtProtoDV -e 5 -c 0 -i 16 -a 0 -x {4.1 1.1 -1 ------- null}
+ -t 0.0209697884873346 -s 4 -d 3 -p rtProtoDV -e 5 -c 0 -i 17 -a 0 -x {4.1 3.1 -1 ------- null}
- -t 0.0209697884873346 -s 4 -d 3 -p rtProtoDV -e 5 -c 0 -i 17 -a 0 -x {4.1 3.1 -1 ------- null}
h -t 0.0209697884873346 -s 4 -d 3 -p rtProtoDV -e 5 -c 0 -i 17 -a 0 -x {4.1 3.1 -1 ------- null}
r -t 0.0209697884873346 -s 2 -d 0 -p rtProtoDV -e 5 -c 0 -i 7 -a 0 -x {2.2 0.2 -1 ------- null}
r -t 0.0209697884873346 -s 2 -d 3 -p rtProtoDV -e 5 -c 0 -i 8 -a 0 -x {2.2 3.1 -1 ------- null}
r -t 0.0279023302185826 -s 0 -d 1 -p rtProtoDV -e 5 -c 0 -i 9 -a 0 -x {0.2 1.1 -1 ------- null}
r -t 0.0279023302185826 -s 0 -d 2 -p rtProtoDV -e 5 -c 0 -i 10 -a 0 -x {0.2 2.2 -1 ------- null}
r -t 0.0279023302185826 -s 3 -d 1 -p rtProtoDV -e 5 -c 0 -i 11 -a 0 -x {3.1 1.1 -1 ------- null}
r -t 0.0279023302185826 -s 3 -d 2 -p rtProtoDV -e 5 -c 0 -i 12 -a 0 -x {3.1 2.2 -1 ------- null}
+ -t 0.0279023302185826 -s 2 -d 0 -p rtProtoDV -e 5 -c 0 -i 18 -a 0 -x {2.2 0.2 -1 ------- null}
- -t 0.0279023302185826 -s 2 -d 0 -p rtProtoDV -e 5 -c 0 -i 18 -a 0 -x {2.2 0.2 -1 ------- null}
h -t 0.0279023302185826 -s 2 -d 0 -p rtProtoDV -e 5 -c 0 -i 18 -a 0 -x {2.2 0.2 -1 ------- null}
+ -t 0.0279023302185826 -s 2 -d 3 -p rtProtoDV -e 5 -c 0 -i 19 -a 0 -x {2.2 3.1 -1 ------- null}
- -t 0.0279023302185826 -s 2 -d 3 -p rtProtoDV -e 5 -c 0 -i 19 -a 0 -x {2.2 3.1 -1 ------- null}
h -t 0.0279023302185826 -s 2 -d 3 -p rtProtoDV -e 5 -c 0 -i 19 -a 0 -x {2.2 3.1 -1 ------- null}
r -t 0.0279023302185826 -s 3 -d 4 -p rtProtoDV -e 5 -c 0 -i 13 -a 0 -x {3.1 4.1 -1 ------- null}
+ -t 0.0279023302185826 -s 4 -d 1 -p rtProtoDV -e 5 -c 0 -i 20 -a 0 -x {4.1 1.1 -1 ------- null}
- -t 0.0279023302185826 -s 4 -d 1 -p rtProtoDV -e 5 -c 0 -i 20 -a 0 -x {4.1 1.1 -1 ------- null}
h -t 0.0279023302185826 -s 4 -d 1 -p rtProtoDV -e 5 -c 0 -i 20 -a 0 -x {4.1 1.1 -1 ------- null}
+ -t 0.0279023302185826 -s 4 -d 3 -p rtProtoDV -e 5 -c 0 -i 21 -a 0 -x {4.1 3.1 -1 ------- null}
- -t 0.0279023302185826 -s 4 -d 3 -p rtProtoDV -e 5 -c 0 -i 21 -a 0 -x {4.1 3.1 -1 ------- null}
h -t 0.0279023302185826 -s 4 -d 3 -p rtProtoDV -e 5 -c 0 -i 21 -a 0 -x {4.1 3.1 -1 ------- null}
r -t 0.0313697884873346 -s 0 -d 1 -p rtProtoDV -e 5 -c 0 -i 14 -a 0 -x {0.2 1.1 -1 ------- null}
r -t 0.0313697884873346 -s 0 -d 2 -p rtProtoDV -e 5 -c 0 -i 15 -a 0 -x {0.2 2.2 -1 ------- null}
r -t 0.0313697884873346 -s 4 -d 1 -p rtProtoDV -e 5 -c 0 -i 16 -a 0 -x {4.1 1.1 -1 ------- null}
r -t 0.0313697884873346 -s 4 -d 3 -p rtProtoDV -e 5 -c 0 -i 17 -a 0 -x {4.1 3.1 -1 ------- null}
r -t 0.0383023302185826 -s 2 -d 0 -p rtProtoDV -e 5 -c 0 -i 18 -a 0 -x {2.2 0.2 -1 ------- null}
r -t 0.0383023302185826 -s 2 -d 3 -p rtProtoDV -e 5 -c 0 -i 19 -a 0 -x {2.2 3.1 -1 ------- null}
r -t 0.0383023302185826 -s 4 -d 1 -p rtProtoDV -e 5 -c 0 -i 20 -a 0 -x {4.1 1.1 -1 ------- null}
r -t 0.0383023302185826 -s 4 -d 3 -p rtProtoDV -e 5 -c 0 -i 21 -a 0 -x {4.1 3.1 -1 ------- null}
+ -t 0.04406133552271 -s 3 -d 1 -p rtProtoDV -e 5 -c 0 -i 22 -a 0 -x {3.1 1.1 -1 ------- null}
- -t 0.04406133552271 -s 3 -d 1 -p rtProtoDV -e 5 -c 0 -i 22 -a 0 -x {3.1 1.1 -1 ------- null}
h -t 0.04406133552271 -s 3 -d 1 -p rtProtoDV -e 5 -c 0 -i 22 -a 0 -x {3.1 1.1 -1 ------- null}
+ -t 0.04406133552271 -s 3 -d 2 -p rtProtoDV -e 5 -c 0 -i 23 -a 0 -x {3.1 2.2 -1 ------- null}
- -t 0.04406133552271 -s 3 -d 2 -p rtProtoDV -e 5 -c 0 -i 23 -a 0 -x {3.1 2.2 -1 ------- null}
h -t 0.04406133552271 -s 3 -d 2 -p rtProtoDV -e 5 -c 0 -i 23 -a 0 -x {3.1 2.2 -1 ------- null}
+ -t 0.04406133552271 -s 3 -d 4 -p rtProtoDV -e 5 -c 0 -i 24 -a 0 -x {3.1 4.1 -1 ------- null}
- -t 0.04406133552271 -s 3 -d 4 -p rtProtoDV -e 5 -c 0 -i 24 -a 0 -x {3.1 4.1 -1 ------- null}
h -t 0.04406133552271 -s 3 -d 4 -p rtProtoDV -e 5 -c 0 -i 24 -a 0 -x {3.1 4.1 -1 ------- null}
r -t 0.05446133552271 -s 3 -d 1 -p rtProtoDV -e 5 -c 0 -i 22 -a 0 -x {3.1 1.1 -1 ------- null}
r -t 0.05446133552271 -s 3 -d 2 -p rtProtoDV -e 5 -c 0 -i 23 -a 0 -x {3.1 2.2 -1 ------- null}
r -t 0.05446133552271 -s 3 -d 4 -p rtProtoDV -e 5 -c 0 -i 24 -a 0 -x {3.1 4.1 -1 ------- null}
+ -t 0.22058669092161 -s 4 -d 1 -p rtProtoDV -e 5 -c 0 -i 25 -a 0 -x {4.1 1.1 -1 ------- null}
- -t 0.22058669092161 -s 4 -d 1 -p rtProtoDV -e 5 -c 0 -i 25 -a 0 -x {4.1 1.1 -1 ------- null}
h -t 0.22058669092161 -s 4 -d 1 -p rtProtoDV -e 5 -c 0 -i 25 -a 0 -x {4.1 1.1 -1 ------- null}
+ -t 0.22058669092161 -s 4 -d 3 -p rtProtoDV -e 5 -c 0 -i 26 -a 0 -x {4.1 3.1 -1 ------- null}
- -t 0.22058669092161 -s 4 -d 3 -p rtProtoDV -e 5 -c 0 -i 26 -a 0 -x {4.1 3.1 -1 ------- null}
h -t 0.22058669092161 -s 4 -d 3 -p rtProtoDV -e 5 -c 0 -i 26 -a 0 -x {4.1 3.1 -1 ------- null}
r -t 0.23098669092161 -s 4 -d 1 -p rtProtoDV -e 5 -c 0 -i 25 -a 0 -x {4.1 1.1 -1 ------- null}
r -t 0.23098669092161 -s 4 -d 3 -p rtProtoDV -e 5 -c 0 -i 26 -a 0 -x {4.1 3.1 -1 ------- null}
+ -t 0.277940357931862 -s 1 -d 0 -p rtProtoDV -e 5 -c 0 -i 27 -a 0 -x {1.1 0.2 -1 ------- null}
- -t 0.277940357931862 -s 1 -d 0 -p rtProtoDV -e 5 -c 0 -i 27 -a 0 -x {1.1 0.2 -1 ------- null}
h -t 0.277940357931862 -s 1 -d 0 -p rtProtoDV -e 5 -c 0 -i 27 -a 0 -x {1.1 0.2 -1 ------- null}
+ -t 0.277940357931862 -s 1 -d 3 -p rtProtoDV -e 5 -c 0 -i 28 -a 0 -x {1.1 3.1 -1 ------- null}
- -t 0.277940357931862 -s 1 -d 3 -p rtProtoDV -e 5 -c 0 -i 28 -a 0 -x {1.1 3.1 -1 ------- null}
h -t 0.277940357931862 -s 1 -d 3 -p rtProtoDV -e 5 -c 0 -i 28 -a 0 -x {1.1 3.1 -1 ------- null}
+ -t 0.277940357931862 -s 1 -d 4 -p rtProtoDV -e 5 -c 0 -i 29 -a 0 -x {1.1 4.1 -1 ------- null}
- -t 0.277940357931862 -s 1 -d 4 -p rtProtoDV -e 5 -c 0 -i 29 -a 0 -x {1.1 4.1 -1 ------- null}
h -t 0.277940357931862 -s 1 -d 4 -p rtProtoDV -e 5 -c 0 -i 29 -a 0 -x {1.1 4.1 -1 ------- null}
r -t 0.288340357931862 -s 1 -d 0 -p rtProtoDV -e 5 -c 0 -i 27 -a 0 -x {1.1 0.2 -1 ------- null}
r -t 0.288340357931862 -s 1 -d 3 -p rtProtoDV -e 5 -c 0 -i 28 -a 0 -x {1.1 3.1 -1 ------- null}
r -t 0.288340357931862 -s 1 -d 4 -p rtProtoDV -e 5 -c 0 -i 29 -a 0 -x {1.1 4.1 -1 ------- null}
+ -t 0.5 -s 0 -d 2 -p cbr -e 50 -c 1 -i 30 -a 1 -x {0.0 2.0 0 ------- null}
- -t 0.5 -s 0 -d 2 -p cbr -e 50 -c 1 -i 30 -a 1 -x {0.0 2.0 0 ------- null}
h -t 0.5 -s 0 -d 2 -p cbr -e 50 -c 1 -i 30 -a 1 -x {0.0 2.0 -1 ------- null}
+ -t 0.51 -s 0 -d 2 -p cbr -e 50 -c 1 -i 31 -a 1 -x {0.0 2.0 1 ------- null}
- -t 0.51 -s 0 -d 2 -p cbr -e 50 -c 1 -i 31 -a 1 -x {0.0 2.0 1 ------- null}
h -t 0.51 -s 0 -d 2 -p cbr -e 50 -c 1 -i 31 -a 1 -x {0.0 2.0 -1 ------- null}
r -t 0.514 -s 0 -d 2 -p cbr -e 50 -c 1 -i 30 -a 1 -x {0.0 2.0 0 ------- null}
+ -t 0.52 -s 0 -d 2 -p cbr -e 50 -c 1 -i 32 -a 1 -x {0.0 2.0 2 ------- null}
- -t 0.52 -s 0 -d 2 -p cbr -e 50 -c 1 -i 32 -a 1 -x {0.0 2.0 2 ------- null}
h -t 0.52 -s 0 -d 2 -p cbr -e 50 -c 1 -i 32 -a 1 -x {0.0 2.0 -1 ------- null}
r -t 0.524 -s 0 -d 2 -p cbr -e 50 -c 1 -i 31 -a 1 -x {0.0 2.0 1 ------- null}
+ -t 0.53 -s 0 -d 2 -p cbr -e 50 -c 1 -i 33 -a 1 -x {0.0 2.0 3 ------- null}
- -t 0.53 -s 0 -d 2 -p cbr -e 50 -c 1 -i 33 -a 1 -x {0.0 2.0 3 ------- null}
h -t 0.53 -s 0 -d 2 -p cbr -e 50 -c 1 -i 33 -a 1 -x {0.0 2.0 -1 ------- null}
r -t 0.534 -s 0 -d 2 -p cbr -e 50 -c 1 -i 32 -a 1 -x {0.0 2.0 2 ------- null}
+ -t 0.54 -s 0 -d 2 -p cbr -e 50 -c 1 -i 34 -a 1 -x {0.0 2.0 4 ------- null}
- -t 0.54 -s 0 -d 2 -p cbr -e 50 -c 1 -i 34 -a 1 -x {0.0 2.0 4 ------- null}
h -t 0.54 -s 0 -d 2 -p cbr -e 50 -c 1 -i 34 -a 1 -x {0.0 2.0 -1 ------- null}
r -t 0.544 -s 0 -d 2 -p cbr -e 50 -c 1 -i 33 -a 1 -x {0.0 2.0 3 ------- null}
+ -t 0.55 -s 0 -d 2 -p cbr -e 50 -c 1 -i 35 -a 1 -x {0.0 2.0 5 ------- null}
- -t 0.55 -s 0 -d 2 -p cbr -e 50 -c 1 -i 35 -a 1 -x {0.0 2.0 5 ------- null}
h -t 0.55 -s 0 -d 2 -p cbr -e 50 -c 1 -i 35 -a 1 -x {0.0 2.0 -1 ------- null}
r -t 0.554 -s 0 -d 2 -p cbr -e 50 -c 1 -i 34 -a 1 -x {0.0 2.0 4 ------- null}
+ -t 0.56 -s 0 -d 2 -p cbr -e 50 -c 1 -i 36 -a 1 -x {0.0 2.0 6 ------- null}
- -t 0.56 -s 0 -d 2 -p cbr -e 50 -c 1 -i 36 -a 1 -x {0.0 2.0 6 ------- null}
h -t 0.56 -s 0 -d 2 -p cbr -e 50 -c 1 -i 36 -a 1 -x {0.0 2.0 -1 ------- null}
r -t 0.564 -s 0 -d 2 -p cbr -e 50 -c 1 -i 35 -a 1 -x {0.0 2.0 5 ------- null}
+ -t 0.57 -s 0 -d 2 -p cbr -e 50 -c 1 -i 37 -a 1 -x {0.0 2.0 7 ------- null}
- -t 0.57 -s 0 -d 2 -p cbr -e 50 -c 1 -i 37 -a 1 -x {0.0 2.0 7 ------- null}
h -t 0.57 -s 0 -d 2 -p cbr -e 50 -c 1 -i 37 -a 1 -x {0.0 2.0 -1 ------- null}
r -t 0.574 -s 0 -d 2 -p cbr -e 50 -c 1 -i 36 -a 1 -x {0.0 2.0 6 ------- null}
+ -t 0.58 -s 0 -d 2 -p cbr -e 50 -c 1 -i 38 -a 1 -x {0.0 2.0 8 ------- null}
- -t 0.58 -s 0 -d 2 -p cbr -e 50 -c 1 -i 38 -a 1 -x {0.0 2.0 8 ------- null}
h -t 0.58 -s 0 -d 2 -p cbr -e 50 -c 1 -i 38 -a 1 -x {0.0 2.0 -1 ------- null}
r -t 0.584 -s 0 -d 2 -p cbr -e 50 -c 1 -i 37 -a 1 -x {0.0 2.0 7 ------- null}
+ -t 0.59 -s 0 -d 2 -p cbr -e 50 -c 1 -i 39 -a 1 -x {0.0 2.0 9 ------- null}
- -t 0.59 -s 0 -d 2 -p cbr -e 50 -c 1 -i 39 -a 1 -x {0.0 2.0 9 ------- null}
h -t 0.59 -s 0 -d 2 -p cbr -e 50 -c 1 -i 39 -a 1 -x {0.0 2.0 -1 ------- null}
r -t 0.594 -s 0 -d 2 -p cbr -e 50 -c 1 -i 38 -a 1 -x {0.0 2.0 8 ------- null}
+ -t 0.6 -s 0 -d 2 -p cbr -e 50 -c 1 -i 40 -a 1 -x {0.0 2.0 10 ------- null}
- -t 0.6 -s 0 -d 2 -p cbr -e 50 -c 1 -i 40 -a 1 -x {0.0 2.0 10 ------- null}
h -t 0.6 -s 0 -d 2 -p cbr -e 50 -c 1 -i 40 -a 1 -x {0.0 2.0 -1 ------- null}
r -t 0.604 -s 0 -d 2 -p cbr -e 50 -c 1 -i 39 -a 1 -x {0.0 2.0 9 ------- null}
+ -t 0.61 -s 0 -d 2 -p cbr -e 50 -c 1 -i 41 -a 1 -x {0.0 2.0 11 ------- null}
- -t 0.61 -s 0 -d 2 -p cbr -e 50 -c 1 -i 41 -a 1 -x {0.0 2.0 11 ------- null}
h -t 0.61 -s 0 -d 2 -p cbr -e 50 -c 1 -i 41 -a 1 -x {0.0 2.0 -1 ------- null}
r -t 0.614 -s 0 -d 2 -p cbr -e 50 -c 1 -i 40 -a 1 -x {0.0 2.0 10 ------- null}
+ -t 0.62 -s 0 -d 2 -p cbr -e 50 -c 1 -i 42 -a 1 -x {0.0 2.0 12 ------- null}
- -t 0.62 -s 0 -d 2 -p cbr -e 50 -c 1 -i 42 -a 1 -x {0.0 2.0 12 ------- null}
h -t 0.62 -s 0 -d 2 -p cbr -e 50 -c 1 -i 42 -a 1 -x {0.0 2.0 -1 ------- null}
r -t 0.624 -s 0 -d 2 -p cbr -e 50 -c 1 -i 41 -a 1 -x {0.0 2.0 11 ------- null}
+ -t 0.63 -s 0 -d 2 -p cbr -e 50 -c 1 -i 43 -a 1 -x {0.0 2.0 13 ------- null}
- -t 0.63 -s 0 -d 2 -p cbr -e 50 -c 1 -i 43 -a 1 -x {0.0 2.0 13 ------- null}
h -t 0.63 -s 0 -d 2 -p cbr -e 50 -c 1 -i 43 -a 1 -x {0.0 2.0 -1 ------- null}
r -t 0.634 -s 0 -d 2 -p cbr -e 50 -c 1 -i 42 -a 1 -x {0.0 2.0 12 ------- null}
+ -t 0.64 -s 0 -d 2 -p cbr -e 50 -c 1 -i 44 -a 1 -x {0.0 2.0 14 ------- null}
- -t 0.64 -s 0 -d 2 -p cbr -e 50 -c 1 -i 44 -a 1 -x {0.0 2.0 14 ------- null}
h -t 0.64 -s 0 -d 2 -p cbr -e 50 -c 1 -i 44 -a 1 -x {0.0 2.0 -1 ------- null}
r -t 0.644 -s 0 -d 2 -p cbr -e 50 -c 1 -i 43 -a 1 -x {0.0 2.0 13 ------- null}
+ -t 0.65 -s 0 -d 2 -p cbr -e 50 -c 1 -i 45 -a 1 -x {0.0 2.0 15 ------- null}
- -t 0.65 -s 0 -d 2 -p cbr -e 50 -c 1 -i 45 -a 1 -x {0.0 2.0 15 ------- null}
h -t 0.65 -s 0 -d 2 -p cbr -e 50 -c 1 -i 45 -a 1 -x {0.0 2.0 -1 ------- null}
r -t 0.654 -s 0 -d 2 -p cbr -e 50 -c 1 -i 44 -a 1 -x {0.0 2.0 14 ------- null}
+ -t 0.66 -s 0 -d 2 -p cbr -e 50 -c 1 -i 46 -a 1 -x {0.0 2.0 16 ------- null}
- -t 0.66 -s 0 -d 2 -p cbr -e 50 -c 1 -i 46 -a 1 -x {0.0 2.0 16 ------- null}
h -t 0.66 -s 0 -d 2 -p cbr -e 50 -c 1 -i 46 -a 1 -x {0.0 2.0 -1 ------- null}
r -t 0.664 -s 0 -d 2 -p cbr -e 50 -c 1 -i 45 -a 1 -x {0.0 2.0 15 ------- null}
+ -t 0.67 -s 0 -d 2 -p cbr -e 50 -c 1 -i 47 -a 1 -x {0.0 2.0 17 ------- null}
- -t 0.67 -s 0 -d 2 -p cbr -e 50 -c 1 -i 47 -a 1 -x {0.0 2.0 17 ------- null}
h -t 0.67 -s 0 -d 2 -p cbr -e 50 -c 1 -i 47 -a 1 -x {0.0 2.0 -1 ------- null}
r -t 0.674 -s 0 -d 2 -p cbr -e 50 -c 1 -i 46 -a 1 -x {0.0 2.0 16 ------- null}
+ -t 0.68 -s 0 -d 2 -p cbr -e 50 -c 1 -i 48 -a 1 -x {0.0 2.0 18 ------- null}
- -t 0.68 -s 0 -d 2 -p cbr -e 50 -c 1 -i 48 -a 1 -x {0.0 2.0 18 ------- null}
h -t 0.68 -s 0 -d 2 -p cbr -e 50 -c 1 -i 48 -a 1 -x {0.0 2.0 -1 ------- null}
r -t 0.684 -s 0 -d 2 -p cbr -e 50 -c 1 -i 47 -a 1 -x {0.0 2.0 17 ------- null}
+ -t 0.69 -s 0 -d 2 -p cbr -e 50 -c 1 -i 49 -a 1 -x {0.0 2.0 19 ------- null}
- -t 0.69 -s 0 -d 2 -p cbr -e 50 -c 1 -i 49 -a 1 -x {0.0 2.0 19 ------- null}
h -t 0.69 -s 0 -d 2 -p cbr -e 50 -c 1 -i 49 -a 1 -x {0.0 2.0 -1 ------- null}
r -t 0.694 -s 0 -d 2 -p cbr -e 50 -c 1 -i 48 -a 1 -x {0.0 2.0 18 ------- null}
+ -t 0.7 -s 0 -d 2 -p cbr -e 50 -c 1 -i 50 -a 1 -x {0.0 2.0 20 ------- null}
- -t 0.7 -s 0 -d 2 -p cbr -e 50 -c 1 -i 50 -a 1 -x {0.0 2.0 20 ------- null}
h -t 0.7 -s 0 -d 2 -p cbr -e 50 -c 1 -i 50 -a 1 -x {0.0 2.0 -1 ------- null}
r -t 0.704 -s 0 -d 2 -p cbr -e 50 -c 1 -i 49 -a 1 -x {0.0 2.0 19 ------- null}
+ -t 0.71 -s 0 -d 2 -p cbr -e 50 -c 1 -i 51 -a 1 -x {0.0 2.0 21 ------- null}
- -t 0.71 -s 0 -d 2 -p cbr -e 50 -c 1 -i 51 -a 1 -x {0.0 2.0 21 ------- null}
h -t 0.71 -s 0 -d 2 -p cbr -e 50 -c 1 -i 51 -a 1 -x {0.0 2.0 -1 ------- null}
r -t 0.714 -s 0 -d 2 -p cbr -e 50 -c 1 -i 50 -a 1 -x {0.0 2.0 20 ------- null}
+ -t 0.72 -s 0 -d 2 -p cbr -e 50 -c 1 -i 52 -a 1 -x {0.0 2.0 22 ------- null}
- -t 0.72 -s 0 -d 2 -p cbr -e 50 -c 1 -i 52 -a 1 -x {0.0 2.0 22 ------- null}
h -t 0.72 -s 0 -d 2 -p cbr -e 50 -c 1 -i 52 -a 1 -x {0.0 2.0 -1 ------- null}
r -t 0.724 -s 0 -d 2 -p cbr -e 50 -c 1 -i 51 -a 1 -x {0.0 2.0 21 ------- null}
+ -t 0.73 -s 0 -d 2 -p cbr -e 50 -c 1 -i 53 -a 1 -x {0.0 2.0 23 ------- null}
- -t 0.73 -s 0 -d 2 -p cbr -e 50 -c 1 -i 53 -a 1 -x {0.0 2.0 23 ------- null}
h -t 0.73 -s 0 -d 2 -p cbr -e 50 -c 1 -i 53 -a 1 -x {0.0 2.0 -1 ------- null}
r -t 0.734 -s 0 -d 2 -p cbr -e 50 -c 1 -i 52 -a 1 -x {0.0 2.0 22 ------- null}
+ -t 0.74 -s 0 -d 2 -p cbr -e 50 -c 1 -i 54 -a 1 -x {0.0 2.0 24 ------- null}
- -t 0.74 -s 0 -d 2 -p cbr -e 50 -c 1 -i 54 -a 1 -x {0.0 2.0 24 ------- null}
h -t 0.74 -s 0 -d 2 -p cbr -e 50 -c 1 -i 54 -a 1 -x {0.0 2.0 -1 ------- null}
r -t 0.744 -s 0 -d 2 -p cbr -e 50 -c 1 -i 53 -a 1 -x {0.0 2.0 23 ------- null}
+ -t 0.75 -s 0 -d 2 -p cbr -e 50 -c 1 -i 55 -a 1 -x {0.0 2.0 25 ------- null}
- -t 0.75 -s 0 -d 2 -p cbr -e 50 -c 1 -i 55 -a 1 -x {0.0 2.0 25 ------- null}
h -t 0.75 -s 0 -d 2 -p cbr -e 50 -c 1 -i 55 -a 1 -x {0.0 2.0 -1 ------- null}
r -t 0.754 -s 0 -d 2 -p cbr -e 50 -c 1 -i 54 -a 1 -x {0.0 2.0 24 ------- null}
+ -t 0.76 -s 0 -d 2 -p cbr -e 50 -c 1 -i 56 -a 1 -x {0.0 2.0 26 ------- null}
- -t 0.76 -s 0 -d 2 -p cbr -e 50 -c 1 -i 56 -a 1 -x {0.0 2.0 26 ------- null}
h -t 0.76 -s 0 -d 2 -p cbr -e 50 -c 1 -i 56 -a 1 -x {0.0 2.0 -1 ------- null}
r -t 0.764 -s 0 -d 2 -p cbr -e 50 -c 1 -i 55 -a 1 -x {0.0 2.0 25 ------- null}
+ -t 0.77 -s 0 -d 2 -p cbr -e 50 -c 1 -i 57 -a 1 -x {0.0 2.0 27 ------- null}
- -t 0.77 -s 0 -d 2 -p cbr -e 50 -c 1 -i 57 -a 1 -x {0.0 2.0 27 ------- null}
h -t 0.77 -s 0 -d 2 -p cbr -e 50 -c 1 -i 57 -a 1 -x {0.0 2.0 -1 ------- null}
r -t 0.774 -s 0 -d 2 -p cbr -e 50 -c 1 -i 56 -a 1 -x {0.0 2.0 26 ------- null}
+ -t 0.78 -s 0 -d 2 -p cbr -e 50 -c 1 -i 58 -a 1 -x {0.0 2.0 28 ------- null}
- -t 0.78 -s 0 -d 2 -p cbr -e 50 -c 1 -i 58 -a 1 -x {0.0 2.0 28 ------- null}
h -t 0.78 -s 0 -d 2 -p cbr -e 50 -c 1 -i 58 -a 1 -x {0.0 2.0 -1 ------- null}
r -t 0.784 -s 0 -d 2 -p cbr -e 50 -c 1 -i 57 -a 1 -x {0.0 2.0 27 ------- null}
+ -t 0.79 -s 0 -d 2 -p cbr -e 50 -c 1 -i 59 -a 1 -x {0.0 2.0 29 ------- null}
- -t 0.79 -s 0 -d 2 -p cbr -e 50 -c 1 -i 59 -a 1 -x {0.0 2.0 29 ------- null}
h -t 0.79 -s 0 -d 2 -p cbr -e 50 -c 1 -i 59 -a 1 -x {0.0 2.0 -1 ------- null}
r -t 0.794 -s 0 -d 2 -p cbr -e 50 -c 1 -i 58 -a 1 -x {0.0 2.0 28 ------- null}
+ -t 0.8 -s 0 -d 2 -p cbr -e 50 -c 1 -i 60 -a 1 -x {0.0 2.0 30 ------- null}
- -t 0.8 -s 0 -d 2 -p cbr -e 50 -c 1 -i 60 -a 1 -x {0.0 2.0 30 ------- null}
h -t 0.8 -s 0 -d 2 -p cbr -e 50 -c 1 -i 60 -a 1 -x {0.0 2.0 -1 ------- null}
r -t 0.804 -s 0 -d 2 -p cbr -e 50 -c 1 -i 59 -a 1 -x {0.0 2.0 29 ------- null}
+ -t 0.81 -s 0 -d 2 -p cbr -e 50 -c 1 -i 61 -a 1 -x {0.0 2.0 31 ------- null}
- -t 0.81 -s 0 -d 2 -p cbr -e 50 -c 1 -i 61 -a 1 -x {0.0 2.0 31 ------- null}
h -t 0.81 -s 0 -d 2 -p cbr -e 50 -c 1 -i 61 -a 1 -x {0.0 2.0 -1 ------- null}
r -t 0.814 -s 0 -d 2 -p cbr -e 50 -c 1 -i 60 -a 1 -x {0.0 2.0 30 ------- null}
+ -t 0.82 -s 0 -d 2 -p cbr -e 50 -c 1 -i 62 -a 1 -x {0.0 2.0 32 ------- null}
- -t 0.82 -s 0 -d 2 -p cbr -e 50 -c 1 -i 62 -a 1 -x {0.0 2.0 32 ------- null}
h -t 0.82 -s 0 -d 2 -p cbr -e 50 -c 1 -i 62 -a 1 -x {0.0 2.0 -1 ------- null}
r -t 0.824 -s 0 -d 2 -p cbr -e 50 -c 1 -i 61 -a 1 -x {0.0 2.0 31 ------- null}
+ -t 0.83 -s 0 -d 2 -p cbr -e 50 -c 1 -i 63 -a 1 -x {0.0 2.0 33 ------- null}
- -t 0.83 -s 0 -d 2 -p cbr -e 50 -c 1 -i 63 -a 1 -x {0.0 2.0 33 ------- null}
h -t 0.83 -s 0 -d 2 -p cbr -e 50 -c 1 -i 63 -a 1 -x {0.0 2.0 -1 ------- null}
r -t 0.834 -s 0 -d 2 -p cbr -e 50 -c 1 -i 62 -a 1 -x {0.0 2.0 32 ------- null}
+ -t 0.84 -s 0 -d 2 -p cbr -e 50 -c 1 -i 64 -a 1 -x {0.0 2.0 34 ------- null}
- -t 0.84 -s 0 -d 2 -p cbr -e 50 -c 1 -i 64 -a 1 -x {0.0 2.0 34 ------- null}
h -t 0.84 -s 0 -d 2 -p cbr -e 50 -c 1 -i 64 -a 1 -x {0.0 2.0 -1 ------- null}
r -t 0.844 -s 0 -d 2 -p cbr -e 50 -c 1 -i 63 -a 1 -x {0.0 2.0 33 ------- null}
+ -t 0.85 -s 0 -d 2 -p cbr -e 50 -c 1 -i 65 -a 1 -x {0.0 2.0 35 ------- null}
- -t 0.85 -s 0 -d 2 -p cbr -e 50 -c 1 -i 65 -a 1 -x {0.0 2.0 35 ------- null}
h -t 0.85 -s 0 -d 2 -p cbr -e 50 -c 1 -i 65 -a 1 -x {0.0 2.0 -1 ------- null}
r -t 0.854 -s 0 -d 2 -p cbr -e 50 -c 1 -i 64 -a 1 -x {0.0 2.0 34 ------- null}
+ -t 0.86 -s 0 -d 2 -p cbr -e 50 -c 1 -i 66 -a 1 -x {0.0 2.0 36 ------- null}
- -t 0.86 -s 0 -d 2 -p cbr -e 50 -c 1 -i 66 -a 1 -x {0.0 2.0 36 ------- null}
h -t 0.86 -s 0 -d 2 -p cbr -e 50 -c 1 -i 66 -a 1 -x {0.0 2.0 -1 ------- null}
r -t 0.864 -s 0 -d 2 -p cbr -e 50 -c 1 -i 65 -a 1 -x {0.0 2.0 35 ------- null}
+ -t 0.87 -s 0 -d 2 -p cbr -e 50 -c 1 -i 67 -a 1 -x {0.0 2.0 37 ------- null}
- -t 0.87 -s 0 -d 2 -p cbr -e 50 -c 1 -i 67 -a 1 -x {0.0 2.0 37 ------- null}
h -t 0.87 -s 0 -d 2 -p cbr -e 50 -c 1 -i 67 -a 1 -x {0.0 2.0 -1 ------- null}
r -t 0.874 -s 0 -d 2 -p cbr -e 50 -c 1 -i 66 -a 1 -x {0.0 2.0 36 ------- null}
+ -t 0.88 -s 0 -d 2 -p cbr -e 50 -c 1 -i 68 -a 1 -x {0.0 2.0 38 ------- null}
- -t 0.88 -s 0 -d 2 -p cbr -e 50 -c 1 -i 68 -a 1 -x {0.0 2.0 38 ------- null}
h -t 0.88 -s 0 -d 2 -p cbr -e 50 -c 1 -i 68 -a 1 -x {0.0 2.0 -1 ------- null}
r -t 0.884 -s 0 -d 2 -p cbr -e 50 -c 1 -i 67 -a 1 -x {0.0 2.0 37 ------- null}
+ -t 0.89 -s 0 -d 2 -p cbr -e 50 -c 1 -i 69 -a 1 -x {0.0 2.0 39 ------- null}
- -t 0.89 -s 0 -d 2 -p cbr -e 50 -c 1 -i 69 -a 1 -x {0.0 2.0 39 ------- null}
h -t 0.89 -s 0 -d 2 -p cbr -e 50 -c 1 -i 69 -a 1 -x {0.0 2.0 -1 ------- null}
r -t 0.894 -s 0 -d 2 -p cbr -e 50 -c 1 -i 68 -a 1 -x {0.0 2.0 38 ------- null}
+ -t 0.9 -s 0 -d 2 -p cbr -e 50 -c 1 -i 70 -a 1 -x {0.0 2.0 40 ------- null}
- -t 0.9 -s 0 -d 2 -p cbr -e 50 -c 1 -i 70 -a 1 -x {0.0 2.0 40 ------- null}
h -t 0.9 -s 0 -d 2 -p cbr -e 50 -c 1 -i 70 -a 1 -x {0.0 2.0 -1 ------- null}
r -t 0.904 -s 0 -d 2 -p cbr -e 50 -c 1 -i 69 -a 1 -x {0.0 2.0 39 ------- null}
+ -t 0.91 -s 0 -d 2 -p cbr -e 50 -c 1 -i 71 -a 1 -x {0.0 2.0 41 ------- null}
- -t 0.91 -s 0 -d 2 -p cbr -e 50 -c 1 -i 71 -a 1 -x {0.0 2.0 41 ------- null}
h -t 0.91 -s 0 -d 2 -p cbr -e 50 -c 1 -i 71 -a 1 -x {0.0 2.0 -1 ------- null}
r -t 0.914 -s 0 -d 2 -p cbr -e 50 -c 1 -i 70 -a 1 -x {0.0 2.0 40 ------- null}
+ -t 0.92 -s 0 -d 2 -p cbr -e 50 -c 1 -i 72 -a 1 -x {0.0 2.0 42 ------- null}
- -t 0.92 -s 0 -d 2 -p cbr -e 50 -c 1 -i 72 -a 1 -x {0.0 2.0 42 ------- null}
h -t 0.92 -s 0 -d 2 -p cbr -e 50 -c 1 -i 72 -a 1 -x {0.0 2.0 -1 ------- null}
r -t 0.924 -s 0 -d 2 -p cbr -e 50 -c 1 -i 71 -a 1 -x {0.0 2.0 41 ------- null}
+ -t 0.93 -s 0 -d 2 -p cbr -e 50 -c 1 -i 73 -a 1 -x {0.0 2.0 43 ------- null}
- -t 0.93 -s 0 -d 2 -p cbr -e 50 -c 1 -i 73 -a 1 -x {0.0 2.0 43 ------- null}
h -t 0.93 -s 0 -d 2 -p cbr -e 50 -c 1 -i 73 -a 1 -x {0.0 2.0 -1 ------- null}
r -t 0.934 -s 0 -d 2 -p cbr -e 50 -c 1 -i 72 -a 1 -x {0.0 2.0 42 ------- null}
+ -t 0.94 -s 0 -d 2 -p cbr -e 50 -c 1 -i 74 -a 1 -x {0.0 2.0 44 ------- null}
- -t 0.94 -s 0 -d 2 -p cbr -e 50 -c 1 -i 74 -a 1 -x {0.0 2.0 44 ------- null}
h -t 0.94 -s 0 -d 2 -p cbr -e 50 -c 1 -i 74 -a 1 -x {0.0 2.0 -1 ------- null}
r -t 0.944 -s 0 -d 2 -p cbr -e 50 -c 1 -i 73 -a 1 -x {0.0 2.0 43 ------- null}
+ -t 0.95 -s 0 -d 2 -p cbr -e 50 -c 1 -i 75 -a 1 -x {0.0 2.0 45 ------- null}
- -t 0.95 -s 0 -d 2 -p cbr -e 50 -c 1 -i 75 -a 1 -x {0.0 2.0 45 ------- null}
h -t 0.95 -s 0 -d 2 -p cbr -e 50 -c 1 -i 75 -a 1 -x {0.0 2.0 -1 ------- null}
r -t 0.954 -s 0 -d 2 -p cbr -e 50 -c 1 -i 74 -a 1 -x {0.0 2.0 44 ------- null}
+ -t 0.96 -s 0 -d 2 -p cbr -e 50 -c 1 -i 76 -a 1 -x {0.0 2.0 46 ------- null}
- -t 0.96 -s 0 -d 2 -p cbr -e 50 -c 1 -i 76 -a 1 -x {0.0 2.0 46 ------- null}
h -t 0.96 -s 0 -d 2 -p cbr -e 50 -c 1 -i 76 -a 1 -x {0.0 2.0 -1 ------- null}
r -t 0.964 -s 0 -d 2 -p cbr -e 50 -c 1 -i 75 -a 1 -x {0.0 2.0 45 ------- null}
+ -t 0.97 -s 0 -d 2 -p cbr -e 50 -c 1 -i 77 -a 1 -x {0.0 2.0 47 ------- null}
- -t 0.97 -s 0 -d 2 -p cbr -e 50 -c 1 -i 77 -a 1 -x {0.0 2.0 47 ------- null}
h -t 0.97 -s 0 -d 2 -p cbr -e 50 -c 1 -i 77 -a 1 -x {0.0 2.0 -1 ------- null}
r -t 0.974 -s 0 -d 2 -p cbr -e 50 -c 1 -i 76 -a 1 -x {0.0 2.0 46 ------- null}
+ -t 0.98 -s 0 -d 2 -p cbr -e 50 -c 1 -i 78 -a 1 -x {0.0 2.0 48 ------- null}
- -t 0.98 -s 0 -d 2 -p cbr -e 50 -c 1 -i 78 -a 1 -x {0.0 2.0 48 ------- null}
h -t 0.98 -s 0 -d 2 -p cbr -e 50 -c 1 -i 78 -a 1 -x {0.0 2.0 -1 ------- null}
r -t 0.984 -s 0 -d 2 -p cbr -e 50 -c 1 -i 77 -a 1 -x {0.0 2.0 47 ------- null}
+ -t 0.99 -s 0 -d 2 -p cbr -e 50 -c 1 -i 79 -a 1 -x {0.0 2.0 49 ------- null}
- -t 0.99 -s 0 -d 2 -p cbr -e 50 -c 1 -i 79 -a 1 -x {0.0 2.0 49 ------- null}
h -t 0.99 -s 0 -d 2 -p cbr -e 50 -c 1 -i 79 -a 1 -x {0.0 2.0 -1 ------- null}
r -t 0.994 -s 0 -d 2 -p cbr -e 50 -c 1 -i 78 -a 1 -x {0.0 2.0 48 ------- null}
l -t 1 -s 2 -d 0 -S DOWN
v -t 1 link-down 1 2 0
l -t 1 -s 2 -d 0 -S DOWN
v -t 1 link-down 1 2 0
d -t 1 -s 0 -d 2 -p cbr -e 50 -c 1 -i 79 -a 1 -x {0.0 2.0 49 ------- null}
l -t 1 -s 0 -d 2 -S DOWN
v -t 1 link-down 1 0 2
l -t 1 -s 0 -d 2 -S DOWN
v -t 1 link-down 1 0 2
+ -t 1 -s 0 -d 1 -p rtProtoDV -e 5 -c 0 -i 80 -a 0 -x {0.2 1.1 -1 ------- null}
- -t 1 -s 0 -d 1 -p rtProtoDV -e 5 -c 0 -i 80 -a 0 -x {0.2 1.1 -1 ------- null}
h -t 1 -s 0 -d 1 -p rtProtoDV -e 5 -c 0 -i 80 -a 0 -x {0.2 1.1 -1 ------- null}
+ -t 1 -s 2 -d 3 -p rtProtoDV -e 5 -c 0 -i 81 -a 0 -x {2.2 3.1 -1 ------- null}
- -t 1 -s 2 -d 3 -p rtProtoDV -e 5 -c 0 -i 81 -a 0 -x {2.2 3.1 -1 ------- null}
h -t 1 -s 2 -d 3 -p rtProtoDV -e 5 -c 0 -i 81 -a 0 -x {2.2 3.1 -1 ------- null}
r -t 1.0104 -s 0 -d 1 -p rtProtoDV -e 5 -c 0 -i 80 -a 0 -x {0.2 1.1 -1 ------- null}
+ -t 1.0104 -s 1 -d 0 -p rtProtoDV -e 5 -c 0 -i 84 -a 0 -x {1.1 0.2 -1 ------- null}
- -t 1.0104 -s 1 -d 0 -p rtProtoDV -e 5 -c 0 -i 84 -a 0 -x {1.1 0.2 -1 ------- null}
h -t 1.0104 -s 1 -d 0 -p rtProtoDV -e 5 -c 0 -i 84 -a 0 -x {1.1 0.2 -1 ------- null}
+ -t 1.0104 -s 1 -d 3 -p rtProtoDV -e 5 -c 0 -i 85 -a 0 -x {1.1 3.1 -1 ------- null}
- -t 1.0104 -s 1 -d 3 -p rtProtoDV -e 5 -c 0 -i 85 -a 0 -x {1.1 3.1 -1 ------- null}
h -t 1.0104 -s 1 -d 3 -p rtProtoDV -e 5 -c 0 -i 85 -a 0 -x {1.1 3.1 -1 ------- null}
+ -t 1.0104 -s 1 -d 4 -p rtProtoDV -e 5 -c 0 -i 86 -a 0 -x {1.1 4.1 -1 ------- null}
- -t 1.0104 -s 1 -d 4 -p rtProtoDV -e 5 -c 0 -i 86 -a 0 -x {1.1 4.1 -1 ------- null}
h -t 1.0104 -s 1 -d 4 -p rtProtoDV -e 5 -c 0 -i 86 -a 0 -x {1.1 4.1 -1 ------- null}
r -t 1.0104 -s 2 -d 3 -p rtProtoDV -e 5 -c 0 -i 81 -a 0 -x {2.2 3.1 -1 ------- null}
+ -t 1.0104 -s 3 -d 1 -p rtProtoDV -e 5 -c 0 -i 87 -a 0 -x {3.1 1.1 -1 ------- null}
- -t 1.0104 -s 3 -d 1 -p rtProtoDV -e 5 -c 0 -i 87 -a 0 -x {3.1 1.1 -1 ------- null}
h -t 1.0104 -s 3 -d 1 -p rtProtoDV -e 5 -c 0 -i 87 -a 0 -x {3.1 1.1 -1 ------- null}
+ -t 1.0104 -s 3 -d 2 -p rtProtoDV -e 5 -c 0 -i 88 -a 0 -x {3.1 2.2 -1 ------- null}
- -t 1.0104 -s 3 -d 2 -p rtProtoDV -e 5 -c 0 -i 88 -a 0 -x {3.1 2.2 -1 ------- null}
h -t 1.0104 -s 3 -d 2 -p rtProtoDV -e 5 -c 0 -i 88 -a 0 -x {3.1 2.2 -1 ------- null}